426
Lattice="11.548332214355469 6.6674418449401855 11.98120403289795 -11.54824447631836 6.667413234710693 11.981135368347168 1.9159999283147044e-05 -13.334798812866211 11.981139183044434" Properties=species:S:1:pos:R:3:forces:R:3 energy=-2215.349609375 stress="0.011568533256649971 7.029187827356509e-07 -3.5906464290746953e-07 7.029187827356509e-07 0.011568591929972172 -5.16572242759139e-07 -3.5906464290746953e-07 -5.16572242759139e-07 0.013219964690506458" pbc="T T T"
Ga       1.88712621      -0.76865482       8.23334312       0.15789503      -0.03918324      -0.03301494
Ga      -1.60912979      -1.24986613       8.23360252      -0.10965805      -0.11366170      -0.03377584
Ga      -0.27785817       2.01860642       8.23337460      -0.04439225       0.15582199      -0.03360967
Ga      -1.88701928       0.76871097      27.71013451      -0.15789503       0.03918324       0.03301494
Ga       1.60923684       1.24992228      27.70987511       0.10965805       0.11366170       0.03377584
Ga       0.27796522      -2.01855016      27.71010399       0.04439225      -0.15582199       0.03360967
Ga       0.00093245       0.00053273      11.10389519      -0.00650170      -0.00387995       0.17071849
Ga      -0.00082541      -0.00047659      24.83958244       0.00650170       0.00387995      -0.17071849
Si      -6.09804773       6.00074291      20.52568626      -0.77563369      -0.42067850      -0.53939611
Si       8.24590969       2.28078365      20.52573776       0.02345176       0.88228327      -0.53960818
Si      -2.14766860      -8.28145885      20.52567863       0.75218546      -0.46132198      -0.53948849
Si       6.09815502      -6.00068665      15.41779137       0.77563369       0.42067850       0.53939611
Si      -8.24580193      -2.28072762      15.41774082      -0.02345176      -0.88228327       0.53960818
Si       2.14777565       8.28151512      15.41779900      -0.75218546       0.46132198       0.53948849
Si      -7.63915110       2.99878573      19.72491455       0.04245461       1.02429569      -0.13083600
Si       6.41665554       5.11643267      19.72495461       0.86603719      -0.54907078      -0.13089719
Si       1.22265196      -8.11509800      19.72492027      -0.90833390      -0.47542754      -0.13077632
Si       7.63925838      -2.99872947      16.21856308      -0.04245461      -1.02429569       0.13083600
Si      -6.41654873      -5.11637688      16.21852493      -0.86603719       0.54907078       0.13089719
Si      -1.22254503       8.11515427      16.21855736       0.90833390       0.47542754       0.13077632
Si      -7.52733421       5.58369541      17.41283035      -0.05404207      -0.28721860       1.01223779
Si       8.59935379       3.72711325      17.41285515      -0.22163835       0.19045226       1.01238155
Si      -1.07185686      -9.31072330      17.41282654       0.27572539       0.09675711       1.01228654
Si       7.52744150      -5.58363914      18.53064728       0.05404207       0.28721860      -1.01223779
Si      -8.59924698      -3.72705698      18.53062248       0.22163835      -0.19045226      -1.01238155
Si       1.07196379       9.31077957      18.53065109      -0.27572539      -0.09675711      -1.01228654
Si      -0.38592792       1.95673811      14.02227211       0.16378731      -0.92937863      -0.26654127
Si       1.88771629      -0.64384264      14.02227974      -0.88743848       0.32126361      -0.26636311
Si      -1.50134432      -1.31265283      14.02224255       0.72262675       0.60764033      -0.26696259
Si       0.38603494      -1.95668197      21.92120552      -0.16378731       0.92937863       0.26654127
Si      -1.88760924       0.64389879      21.92119789       0.88743848      -0.32126361       0.26636311
Si       1.50145137       1.31270897      21.92123604      -0.72262675      -0.60764033       0.26696259
H       -5.62943363       7.95338726      18.89873505      -0.03162942      -0.35623148      -0.00709593
H        9.70262146       0.89865023      18.89877129      -0.29265910       0.20551141      -0.00720399
H       -4.07301807      -8.85194778      18.89871407       0.32436559       0.15072574      -0.00711288
H        5.62954092      -7.95333099      17.04474258       0.03162942       0.35623148       0.00709593
H       -9.70251465      -0.89859408      17.04470634       0.29265910      -0.20551141       0.00720399
H        4.07312536       8.85200310      17.04476357      -0.32436559      -0.15072574       0.00711288
H        4.91980648       1.83245635       8.22785854      -0.21192569      -0.30838034       0.12650980
H       -0.87293714      -5.17686129       8.22782898      -0.16105309       0.33770230       0.12647253
H       -4.04679394       3.34444547       8.22783566       0.37302557      -0.02932806       0.12650771
H       -4.91969967      -1.83240020      27.71562004       0.21192569       0.30838034      -0.12650980
H        0.87304419       5.17691755      27.71564865       0.16105309      -0.33770230      -0.12647253
H        4.04690123      -3.34438944      27.71564293      -0.37302557       0.02932806      -0.12650771
H       -4.92626429       8.27283001      20.45271683      -0.18548571      -0.51492488       0.08936347
H        9.62768555       0.12997140      20.45274925      -0.35313460       0.41796568       0.08940216
H       -4.70124245      -8.40270615      20.45269394       0.53863347       0.09682512       0.08939087
H        4.92637110      -8.27277470      15.49076080       0.18548571       0.51492488      -0.08936347
H       -9.62757778      -0.12991527      15.49072838       0.35313460      -0.41796568      -0.08940216
H        4.70134974       8.40276241      15.49078369      -0.53863347      -0.09682512      -0.08939087
H        4.97831678      -1.57163548      10.91540337      -0.01708703      -0.19412673      -0.31443551
H       -3.85021305      -3.52548122      10.91537380      -0.15958913       0.11188347      -0.31444746
H       -1.12801039       5.09716749      10.91539288       0.17666267       0.08226030      -0.31448641
H       -4.97820997       1.57169163      25.02807426       0.01708703       0.19412673       0.31443551
H        3.85032010       3.52553725      25.02810478       0.15958913      -0.11188347       0.31444746
H        1.12811744      -5.09711123      25.02808571      -0.17666267      -0.08226030       0.31448641
H        6.02891684      -0.19590762      10.99578667      -0.12678021      -0.10345382      -0.64928651
H       -3.18409777      -5.12319136      10.99575233      -0.02616906       0.16153623      -0.64923394
H       -2.84472275       5.31914854      10.99577141       0.15294921      -0.05809018      -0.64924592
H       -6.02881002       0.19596377      24.94769096       0.12678021       0.10345382       0.64928651
H        3.18420482       5.12324762      24.94772530       0.02616906      -0.16153623       0.64923394
H        2.84482980      -5.31909227      24.94770622      -0.15294921       0.05809018       0.64924592
H        4.32472658       0.02902713      10.76483154      -0.11347333       0.05671305      -0.40086037
H       -2.13720226      -3.75978208      10.76480579       0.10587204       0.06990523      -0.40084004
H       -2.18742728       3.73080730      10.76481533       0.00761753      -0.12662870      -0.40083125
H       -4.32461977      -0.02897099      25.17864609       0.11347333      -0.05671305       0.40086037
H        2.13730931       3.75983834      25.17867279      -0.10587204      -0.06990523       0.40084004
H        2.18753433      -3.73075128      25.17866135      -0.00761753       0.12662870       0.40083125
H       -4.47808170       3.98534441      20.54756737      -0.37670833       0.12952095       0.05312962
H        5.69052267       1.88557374      20.54759598       0.30054104       0.26151457       0.05313810
H       -1.21225929      -5.87082148      20.54756165       0.07616269      -0.39104125       0.05309855
H        4.47818899      -3.98528838      15.39590931       0.37670833      -0.12952095      -0.05312962
H       -5.69041586      -1.88551772      15.39588165      -0.30054104      -0.26151457      -0.05313810
H        1.21236634       5.87087774      15.39591694      -0.07616269       0.39104125      -0.05309855
H       -4.05095434       5.04769135      19.24656296      -0.36472169       0.18500328      -0.06142896
H        6.39697599       0.98449188      19.24658775       0.34265915       0.22346331      -0.06131694
H       -2.34584498      -6.03209257      19.24655151       0.02217953      -0.40838519      -0.06139336
H        4.05106163      -5.04763508      16.69691467       0.36472169      -0.18500328       0.06142896
H       -6.39686871      -0.98443574      16.69688988      -0.34265915      -0.22346331       0.06131694
H        2.34595203       6.03214884      16.69692612      -0.02217953       0.40838519       0.06139336
H       -3.61353970       5.44997263      20.87889290      -0.64719701       0.18124408      -0.08709167
H        6.52666426       0.40454799      20.87891960       0.48057228       0.46996349      -0.08713429
H       -2.91293383      -5.85442066      20.87888145       0.16661255      -0.65112430      -0.08707387
H        3.61364675      -5.44991636      15.06458473       0.64719701      -0.18124408       0.08709167
H       -6.52655697      -0.40449184      15.06455898      -0.48057228      -0.46996349       0.08713429
H        2.91304088       5.85447645      15.06459713      -0.16661255       0.65112430       0.08707387
H        3.58116174      -3.77703357      10.31598282      -0.13053598       0.17886595      -0.37895310
H       -5.06156588      -1.21281791      10.31595993       0.22017229       0.02359559      -0.37897742
H        1.48049259       4.98990154      10.31599045      -0.08965674      -0.20250815      -0.37894797
H       -3.58105469       3.77708960      25.62749481       0.13053598      -0.17886595       0.37895310
H        5.06167316       1.21287405      25.62751770      -0.22017229      -0.02359559       0.37897742
H       -1.48038554      -4.98984575      25.62748718       0.08965674       0.20250815       0.37894797
H       -7.31829834       1.39266264      21.71450806      -0.08966925       0.36181837      -0.55429441
H        4.86531401       5.64161253      21.71455002       0.35818529      -0.10325906      -0.55426896
H        2.45317745      -7.03417492      21.71452141      -0.26851150      -0.25857410      -0.55433857
H        7.31840515      -1.39260650      14.22896862       0.08966925      -0.36181837       0.55429441
H       -4.86520720      -5.64155626      14.22892857      -0.35818529       0.10325906       0.55426896
H       -2.45307040       7.03423119      14.22895622       0.26851150       0.25857410       0.55433857
H       -6.27643538       2.76058793      21.93347168       0.01734840       0.19440766      -0.39273050
H        5.52903938       4.05537033      21.93351173       0.15969412      -0.11224714      -0.39268702
H        0.74758995      -6.81585789      21.93347931      -0.17706959      -0.08215553      -0.39268520
H        6.27654266      -2.76053190      14.01000690      -0.01734840      -0.19440766       0.39273050
H       -5.52893209      -4.05531406      14.00996685      -0.15969412       0.11224714       0.39268702
H       -0.74748290       6.81591415      14.00999832       0.17706959       0.08215553       0.39268520
H        1.37454474      -4.14497662       7.82705736       0.26222080       0.25855789       0.15743150
H       -4.27690649       0.88212663       7.82704639       0.09282223      -0.35636368       0.15742718
H        2.90243506       3.26288605       7.82706785      -0.35501644       0.09770979       0.15749265
H       -1.37443769       4.14503288      28.11642075      -0.26222080      -0.25855789      -0.15743150
H        4.27701330      -0.88207048      28.11643219      -0.09282223       0.35636368      -0.15742718
H       -2.90232801      -3.26283002      28.11640930       0.35501644      -0.09770979      -0.15749265
H       -9.58779907       2.24812889      18.19610214       0.33020261       0.24306813      -0.00820024
H        6.74091434       7.17931032      18.19615746       0.04544543      -0.40742847      -0.00827151
H        2.84704852      -9.42735767      18.19612312      -0.37556541       0.16440289      -0.00823631
H        9.58790588      -2.24807286      17.74737549      -0.33020261      -0.24306813       0.00820024
H       -6.74080706      -7.17925406      17.74732018      -0.04544543       0.40742847       0.00827151
H       -2.84694147       9.42741394      17.74735451       0.37556541      -0.16440289       0.00823631
H       -9.30484295       1.06833315      19.43797874       0.45693645       0.40453225       0.09865855
H        5.57770681       7.52416277      19.43803215       0.12183791      -0.59789085       0.09866222
H        3.72730803      -8.59240913      19.43800163      -0.57887483       0.19338623       0.09861441
H        9.30494976      -1.06827700      16.50549889      -0.45693645      -0.40453225      -0.09865855
H       -5.57760000      -7.52410650      16.50544548      -0.12183791       0.59789085      -0.09866222
H       -3.72720098       8.59246540      16.50547600       0.57887483      -0.19338623      -0.09861441
H       -6.37529945       2.40577507      17.54211235      -0.30137542       0.19804081       0.24315268
H        5.27118015       4.31837797      17.54214859       0.32223642       0.16201270       0.24310987
H        1.10427880      -6.72406912      17.54211998      -0.02078535      -0.36001194       0.24314025
H        6.37540627      -2.40571904      18.40136719       0.30137542      -0.19804081      -0.24315268
H       -5.27107334      -4.31832170      18.40132904      -0.32223642      -0.16201270      -0.24310987
H       -1.10417175       6.72412539      18.40135765       0.02078535       0.36001194      -0.24314025
H       -5.25376844       2.45293593      18.86436844      -0.17477937       0.25623786       0.26150531
H        4.75126028       3.32352638      18.86440086       0.30932477       0.02323415       0.26156276
H        0.50267684      -5.77637577      18.86437416      -0.13458934      -0.27942175       0.26155379
H        5.25387526      -2.45287991      17.07910919       0.17477937      -0.25623786      -0.26150531
H       -4.75115347      -3.32347035      17.07907677      -0.30932477      -0.02323415      -0.26156276
H       -0.50256979       5.77643204      17.07910347       0.13458934       0.27942175      -0.26155379
H       -6.30056334       1.08215868      18.66184235      -0.34450069       0.42436647       0.29916734
H        4.08753347       4.91546679      18.66188049       0.53982586       0.08611603       0.29915258
H        2.21320009      -5.99753666      18.66185379      -0.19528398      -0.51053321       0.29912978
H        6.30067062      -1.08210254      17.28163719       0.34450069      -0.42436647      -0.29916734
H       -4.08742619      -4.91541052      17.28159714      -0.53982586      -0.08611603      -0.29915258
H       -2.21309304       5.99759293      17.28162384       0.19528398       0.51053321      -0.29912978
H        4.06664705       1.47579074       5.63776445       0.16140610      -0.23600902       0.18652223
H       -0.75523973      -4.25968122       5.63774443      -0.28510940      -0.02174747       0.18655968
H       -3.31135559       2.78391719       5.63774776       0.12376297       0.25777277       0.18653315
H       -4.06653976      -1.47573459      30.30571365      -0.16140610       0.23600902      -0.18652223
H        0.75534678       4.25973749      30.30573273       0.28510940       0.02174747      -0.18655968
H        3.31146264      -2.78386092      30.30573082      -0.12376297      -0.25777277      -0.18653315
H       -7.90074301       7.68029976      16.00012589       0.09354592      -0.52218121       0.25112492
H       10.60177422       3.00219917      16.00018120      -0.49894619       0.18015693       0.25118589
H       -2.70087814     -10.68242264      16.00012016       0.40556598       0.34208706       0.25121450
H        7.90084982      -7.68024349      19.94335175      -0.09354592       0.52218121      -0.25112492
H      -10.60166740      -3.00214314      19.94329643       0.49894619      -0.18015693      -0.25118589
H        2.70098519      10.68247890      19.94335747      -0.40556598      -0.34208706      -0.25121450
H        2.45447683       0.94448763       5.28022861      -0.10703446      -0.33330175       0.14396143
H       -0.40927213      -2.59785581       5.28021097      -0.23505649       0.25948617       0.14399451
H       -2.04515409       1.65338624       5.28021240       0.34220344       0.07385970       0.14398640
H       -2.45437002      -0.94443148      30.66324997       0.10703446       0.33330175      -0.14396143
H        0.40937915       2.59791207      30.66326714       0.23505649      -0.25948617      -0.14399451
H        2.04526114      -1.65333009      30.66326523      -0.34220344      -0.07385970      -0.14398640
H       -9.68405914       4.44529676      16.60113907       0.05047588       0.21757784       0.28056502
H        8.69183826       6.16408539      16.60119247       0.16325605      -0.15236863       0.28058106
H        0.99236453     -10.60930538      16.60114861      -0.21358167      -0.06518559       0.28057921
H        9.68416691      -4.44524050      19.34233856      -0.05047588      -0.21757784      -0.28056502
H       -8.69173050      -6.16402912      19.34228516      -0.16325605       0.15236863      -0.28058106
H       -0.99225754      10.60936069      19.34232903       0.21358167       0.06518559      -0.28057921
H       -8.62597656       4.74455023      15.25819778       0.28511527       0.25031734       0.47514462
H        8.42195797       5.09812784      15.25824928       0.07424057      -0.37199748       0.47510034
H        0.20415907      -9.84260464      15.25820351      -0.35927582       0.12175199       0.47514182
H        8.62608337      -4.74449444      20.68527985      -0.28511527      -0.25031734      -0.47514462
H       -8.42185116      -5.09807205      20.68522835      -0.07424057       0.37199748      -0.47510034
H       -0.20405202       9.84265995      20.68527412       0.35927582      -0.12175199      -0.47514182
H       -8.33290577       3.39634871      16.31026840       0.26151755       0.07238001       0.26203212
H        7.10784817       5.51842356      16.31031799      -0.06807075      -0.26264986       0.26203182
H        1.22520375      -8.91469574      16.31027603      -0.19337928       0.19029385       0.26198962
H        8.33301258      -3.39629245      19.63320923      -0.26151755      -0.07238001      -0.26203212
H       -7.10774136      -5.51836777      19.63315964       0.06807075       0.26264986      -0.26203182
H       -1.22509670       8.91475105      19.63320160       0.19337928      -0.19029385      -0.26198962
H       -4.99292803       6.01831961      17.28352547      -0.30857608       0.05284270       0.17649621
H        7.70854616       1.31494033      17.28355789       0.20007233       0.24067970       0.17658231
H       -2.71546531      -7.33317947      17.28351593       0.10838959      -0.29361022       0.17658427
H        4.99303532      -6.01826334      18.65995216       0.30857608      -0.05284270      -0.17649621
H       -7.70843887      -1.31488419      18.65991974      -0.20007233      -0.24067970      -0.17658231
H        2.71557236       7.33323574      18.65996361      -0.10838959       0.29361022      -0.17658427
H       -5.32793188       4.40178156      16.74912643      -0.27917644      -0.16026817       0.18846354
H        6.47608709       2.41332865      16.74915886       0.00077095       0.32192677       0.18848014
H       -1.14800239      -6.81503248      16.74912071       0.27832258      -0.16172887       0.18844362
H        5.32803869      -4.40172529      19.19435120       0.27917644       0.16026817      -0.18846354
H       -6.47597980      -2.41327238      19.19431877      -0.00077095      -0.32192677      -0.18848014
H        1.14810932       6.81508875      19.19435692      -0.27832258       0.16172887      -0.18844362
H       -5.63915920       5.74683142      15.69391632      -0.50464225      -0.04104447       0.40940705
H        7.79654312       2.01033235      15.69395351       0.21681310       0.45754191       0.40933493
H       -2.15723968      -7.75708866      15.69390774       0.28787541      -0.41652602       0.40938717
H        5.63926649      -5.74677515      20.24956131       0.50464225       0.04104447      -0.40940705
H       -7.79643631      -2.01027608      20.24952507      -0.21681310      -0.45754191      -0.40933493
H        2.15734673       7.75714493      20.24957085      -0.28787541       0.41652602      -0.40938717
H       -2.70049739       2.29396129      12.87590313       0.44266289      -0.13677043      -0.02887185
H        3.33693051       1.19178140      12.87593555      -0.33920699      -0.31450492      -0.02941350
H       -0.63630784      -3.48568869      12.87590122      -0.10267695       0.45132026      -0.02915382
H        2.70060444      -2.29390526      23.06757545      -0.44266289       0.13677043       0.02887185
H       -3.33682346      -1.19172525      23.06754303       0.33920699       0.31450492       0.02941350
H        0.63641489       3.48574495      23.06757736       0.10267695      -0.45132026       0.02915382
H       -2.93487239       1.81472766      14.52606392       0.49785697      -0.11114325      -0.00924188
H        3.03909969       1.63437939      14.52607632      -0.34476951      -0.37480429      -0.00877018
H       -0.10407946      -3.44905901      14.52606678      -0.15237467       0.48623592      -0.00908733
H        2.93497944      -1.81467152      21.41741371      -0.49785697       0.11114325       0.00924188
H       -3.03899264      -1.63432324      21.41740227       0.34476951       0.37480429       0.00877018
H        0.10418650       3.44911504      21.41741180       0.15237467      -0.48623592       0.00908733
H       -2.49532151       3.44877887      14.15477943       0.58394146      -0.26542404      -0.01362757
H        4.23450327       0.43673724      14.15479565      -0.51968300      -0.37318769      -0.01315821
H       -1.73900080      -3.88543081      14.15477562      -0.06250207       0.63799274      -0.01343392
H        2.49542856      -3.44872284      21.78869820      -0.58394146       0.26542404       0.01362757
H       -4.23439598      -0.43668109      21.78868294       0.51968300       0.37318769       0.01315821
H        1.73910785       3.88548684      21.78870201       0.06250207      -0.63799274       0.01343392
H        0.46795726       3.23602080      11.93251133      -0.24518371      -0.30860075       0.06750878
H        2.56853008      -2.02321219      11.93249321      -0.14479069       0.36682612       0.06787889
H       -3.03636956      -1.21274531      11.93247223       0.39014199      -0.05787514       0.06775635
H       -0.46785021      -3.23596478      24.01096725       0.24518371       0.30860075      -0.06750878
H       -2.56842303       2.02326822      24.01098442       0.14479069      -0.36682612      -0.06787889
H        3.03647661       1.21280146      24.01100540      -0.39014199       0.05787514      -0.06775635
H        0.41477725       4.29589415      13.30690956      -0.26940987      -0.49765688       0.20735519
H        3.51297736      -2.50705028      13.30692005      -0.29740992       0.48271799       0.20711023
H       -3.92760658      -1.78874981      13.30692005       0.56739998       0.01653776       0.20712534
H       -0.41467020      -4.29583836      22.63656807       0.26940987       0.49765688      -0.20735519
H       -3.51287055       2.50710654      22.63655663       0.29740992      -0.48271799      -0.20711023
H        3.92771363       1.78880596      22.63655853      -0.56739998      -0.01653776      -0.20712534
H        1.71916962       3.16659141      13.12595844      -0.22691441      -0.34893537       0.21096908
H        1.88279510      -3.07204986      13.12595654      -0.18883611       0.37180555       0.21119221
H       -3.60184813      -0.09444741      13.12594223       0.41634843      -0.02246769       0.21097800
H       -1.71906257      -3.16653538      22.81752014       0.22691441       0.34893537      -0.21096908
H       -1.88268805       3.07210612      22.81752014       0.18883611      -0.37180555      -0.21119221
H        3.60195518       0.09450355      22.81753540      -0.41634843       0.02246769      -0.21097800
H       -0.37247983       1.54648244      16.58843422      -0.16276491      -0.16619892      -0.34321377
H        1.52558172      -0.45057634      16.58845520      -0.06249607       0.22394897      -0.34328836
H       -1.15295219      -1.09582424      16.58844757       0.22519438      -0.05779173      -0.34320584
H        0.37258688      -1.54642642      19.35504341       0.16276491       0.16619892       0.34321377
H       -1.52547467       0.45063248      19.35502243       0.06249607      -0.22394897       0.34328836
H        1.15305924       1.09588039      19.35503006      -0.22519438       0.05779173       0.34320584
H        1.19138014       2.09910154      16.07826805      -0.06302016      -0.10849962      -0.41841963
H        1.22223675      -2.08122063      16.07824326      -0.06237723       0.10922323      -0.41885424
H       -2.41346407      -0.01779273      16.07824516       0.12565340      -0.00034772      -0.41859624
H       -1.19127309      -2.09904528      19.86520958       0.06302016       0.10849962       0.41841963
H       -1.22212970       2.08127666      19.86523438       0.06237723      -0.10922323       0.41885424
H        2.41357112       0.01784887      19.86523247      -0.12565340       0.00034772       0.41859624
H       -0.11386975       3.22748184      16.24676323      -0.09929287      -0.29149386      -0.59025651
H        2.85205579      -1.51503718      16.24674606      -0.20307691       0.23191226      -0.59041679
H       -2.73804450      -1.71236455      16.24672127       0.30261728       0.06007307      -0.59070671
H        0.11397679      -3.22742581      19.69671440       0.09929287       0.29149386       0.59025651
H       -2.85194874       1.51509321      19.69673157       0.20307691      -0.23191226       0.59041679
H        2.73815155       1.71242070      19.69675636      -0.30261728      -0.06007307       0.59070671
H       -7.31492043       3.99607301      10.44423103      -0.35396302       1.43163419      -0.05615946
H        7.11820793       4.33693171      10.44427395       1.41694808      -0.40935707      -0.05622407
H        0.19680743      -8.33295345      10.44423771      -1.06297457      -1.02242291      -0.05615555
H        7.31502724      -3.99601698      25.49924660       0.35396302      -1.43163419       0.05615946
H       -7.11810064      -4.33687544      25.49920464      -1.41694808       0.40935707       0.05622407
H       -0.19670039       8.33300972      25.49924088       1.06297457       1.02242291       0.05615555
H       -6.92479467       2.58282661       9.61049366       0.26349640      -0.63319701      -1.47435248
H        5.69923687       4.70569277       9.61053753      -0.68009233       0.08846386      -1.47433925
H        1.22564852      -7.28847075       9.61050415       0.41666844       0.54475302      -1.47431207
H        6.92490149      -2.58277059      26.33298302      -0.26349640       0.63319701       1.47435248
H       -5.69912958      -4.70563650      26.33294106       0.68009233      -0.08846386       1.47433925
H       -1.22554147       7.28852654      26.33297348      -0.41666844      -0.54475302       1.47431207
H       -5.37254524       3.62167025      11.66536140       0.56703097       1.11739421       0.05102321
H        5.82277822       2.84199023      11.66539478       0.68414682      -1.04975843       0.05107384
H       -0.45013005      -6.46360636      11.66536427      -1.25121379      -0.06761857       0.05111105
H        5.37265205      -3.62161422      24.27811623      -0.56703097      -1.11739421      -0.05102321
H       -5.82267141      -2.84193397      24.27808380      -0.68414682       1.04975843      -0.05107384
H        0.45023710       6.46366215      24.27811432       1.25121379       0.06761857      -0.05111105
H       -5.26615238       2.02069211      11.14378262       0.69554669      -0.96260977      -0.54270482
H        4.38309574       3.55034161      11.14381695      -1.18150353      -0.12106928      -0.54268771
H        0.88316214      -5.57097912      11.14378738       0.48592588       1.08377266      -0.54274994
H        5.26625967      -2.02063608      24.79969597      -0.69554669       0.96260977       0.54270482
H       -4.38298845      -3.55028558      24.79966164       1.18150353       0.12106928       0.54268771
H       -0.88305509       5.57103539      24.79969025      -0.48592588      -1.08377266       0.54274994
H       -6.05698586       1.36859906      13.17847443       0.70111197      -1.22993505       0.49200207
H        4.21378803       4.56127453      13.17851162      -1.41579676       0.00777755       0.49205601
H        1.84331477      -5.92981291      13.17848492       0.71460038       1.22220588       0.49199235
H        6.05709267      -1.36854291      22.76500320      -0.70111197       1.22993505      -0.49200207
H       -4.21368074      -4.56121826      22.76496696       1.41579676      -0.00777755      -0.49205601
H       -1.84320772       5.92986917      22.76499367      -0.71460038      -1.22220588      -0.49199235
H       -6.35318041       2.98883200      13.62582207       0.29059628       0.95797533       1.09717524
H        5.76505089       4.00767183      13.62585926       0.68436265      -0.73075670       1.09724200
H        0.58824950      -6.99644327      13.62582970      -0.97498047      -0.22729243       1.09718537